 108  108
1 1
    33.942404638599598     1.309332341664635    -0.310241120183530
     1.309407942622243    35.766050590716461     1.720190898023335
    -0.311896054315808     1.721061030464504    41.943249859137040
1 2
    -0.039329969723955     0.006801979347922    -0.006259541732764
    -0.002456519032161     0.055296548692508    -0.006099525260880
     0.016203652452635     0.011128864211733     0.054412529150528
1 3
    -0.039341357441849    -0.002438531501446     0.016205188575221
     0.006776230156973     0.055292598248744     0.011130246899904
    -0.006260091398474    -0.006092446221027     0.054411659006094
1 4
     0.133821753683550     2.394760053594502     0.694765738149438
     1.007273013959367    -1.856443409979009    -0.080951405187421
     0.221175706940113     0.653796566750153     1.259420816528789
1 5
    -0.062320399270479    -0.006521826452726    -0.074232651647276
     0.008212431209366    -0.061449265290576    -0.036183897995000
     0.079129828250514     0.043085274393026     0.059236340735456
1 6
     0.020391287472830    -0.032726155212495     0.019324171825620
    -0.053313907152816    -0.030945788619033     0.017436937828742
    -0.022933650346520    -0.023424782228742     0.061475022870042
1 7
     0.133656451163222     1.006748170563043     0.221156284450296
     2.395384042527196    -1.856367528201567     0.653709578959366
     0.694724540188463    -0.081027161115010     1.259397482905111
1 8
     0.020405001334749    -0.053326493515949    -0.022937051041979
    -0.032732380954610    -0.030963334460984    -0.023420477321313
     0.019328310014816     0.017433079977274     0.061477257790160
1 9
    -0.062365741037274     0.008165209631996     0.079113395085206
    -0.006548688742826    -0.061467445994649     0.043075506729790
    -0.074215772239656    -0.036173405761683     0.059232852511466
1 10
    -2.991598155870177     0.614421883393815    -0.365804544983722
    -0.722320368961778     1.084476783883235    -0.604860555392849
     0.495402406248808    -0.631526288256907     1.145512718925609
1 11
     0.017554421931695     0.006780150624319     0.000916510852400
     0.010217226650611     0.007738281552135    -0.001329897581134
    -0.000692780499033     0.001458087657147     0.005894503084547
1 12
    -2.770049193321189    -0.669123282517660     0.382617621684314
     0.720506053493132     1.005544505299753    -0.601295049991354
    -0.414992894079510    -0.622993725584210     1.242264182171024
1 13
     0.084393908384009    -2.316724962288815    -0.746946389349620
    -0.926495301332981    -1.848241599245805    -0.047857730352047
    -0.329364171749929     0.632185381635758     1.242199444752317
1 14
     0.025823921270484     0.009720933627161     0.004361142511697
     0.026961707082235     0.004644832167597     0.007769922335110
     0.008913095668473    -0.000104727348926     0.006418828807926
1 15
    -0.087361276642469    -0.048871852278230     0.057949906766011
    -0.017972215956336    -0.126818608567631     0.025888719913524
    -0.041496873660089    -0.105034290679423     0.091690887709506
1 16
    -0.146045506999350    -0.014973326270612    -0.111689374619739
     0.015925327757461    -0.068286039747932     0.016563403291051
     0.051341316741532     0.037248586795135     0.091703633072776
1 17
     0.018824490587082     0.023927988043222     0.006934005954250
     0.003013849319559     0.003273360141600     0.000666875644251
     0.004046830785990     0.005673057437647     0.007404459749113
1 18
     0.019149528801078    -1.123365294995236    -0.299033954175693
    -2.459615622406384    -1.925122041797978     0.744873848940347
    -0.706749785127353    -0.014342421039488     1.145407150853217
1 19
    -7.375687890726669     0.001567931516562     0.156927610478765
     0.071648801769462    -9.202576901080958     0.679622384198415
     0.090913452434085     0.630145287512431    -5.393816282011689
1 20
     0.072672725626890    -0.020406217420266     0.012797364994413
    -0.020135637328314     0.005490285750741    -0.001844402059581
     0.008414649427274    -0.000505184423033     0.028591235100003
1 21
     0.101058619751100     0.079704605490888    -0.013088611213238
     0.068617208912451     0.002649252323132    -0.001190221490057
    -0.010559247416368    -0.030953061336236     0.055138731907565
1 22
    -0.349298674699009     0.002618022169141    -0.171660312725831
    -0.044496819875993    -0.334099391832478    -0.061108491661950
    -0.127311056482838    -0.090627637348843    -0.349343030479418
1 23
     0.005052490546899     0.015451276182563     0.008533842330638
     0.022270611735288     0.069358927448855     0.008586420084045
     0.005828469818131     0.008083613772020     0.032132075164378
1 24
     0.022939719143997     0.137286704990049    -0.023235621027535
     0.133098590549614    -0.418978562356143    -0.201256517557716
     0.015714855294280    -0.167819751948552    -0.151275553795045
1 25
    -8.072354521700348     0.591196040829157     0.900656642268052
     0.493919076393849    -7.659078589443393    -0.536502729573558
     0.715782162489526    -0.358760262540529    -5.133846036155767
1 26
    -0.048599567030526    -0.006454703809045     0.012595213066891
    -0.009873133554079    -0.041957401078777     0.004212733898853
     0.010602939531947     0.009141609985175     0.008117846002065
1 27
    -0.169270879496049     0.258789869779068    -0.152656938641252
     0.226902288800669    -0.201188788151885     0.102209436326623
    -0.168058520518069     0.104024099566578    -0.152487720328847
1 28
     0.320151633755248     0.032020844594593    -0.088937329685423
     0.047837571594278     0.143437583288952    -0.068421706917775
     0.014370902363206    -0.024741740601686    -0.130797257539926
1 29
     0.004716176316886    -0.024901625541830     0.002507284211939
    -0.023462035754114    -0.028226200035496    -0.005813089019763
    -0.000166342099268    -0.005801703267369     0.007634615087362
1 30
     0.264870823364227    -0.143494069209210     0.037330371607148
    -0.048047573844307     0.187511240576019    -0.024986067040741
     0.056203423004941     0.011511462796554    -0.088131723528623
1 31
    -0.405017258283693    -0.070039781778533     0.130425171135788
    -0.075571444958612     0.115065755453269     0.093894058495926
     0.146985312986132     0.142696511718281    -0.164971166429945
1 32
    -0.047132351573415    -0.021962159665310    -0.002785592620452
    -0.027184319804340    -0.017044253488465     0.000646777151535
    -0.005094931532969    -0.002292573398066     0.011408804367744
1 33
     0.160533967210685    -0.008569166315409    -0.027227729330298
    -0.009244192747127     0.413678143463144     0.006660204074534
    -0.001219121879070     0.029658903512791    -0.007991133909080
1 34
    -0.205093740470501    -0.243457466402581     0.153608121148153
    -0.259062451897253    -0.226485493427808     0.084034142549717
     0.134892349561531     0.093941841461749    -0.152097533786587
1 35
    -0.045121552244973     0.001787014543053    -0.006580628490604
     0.001516694433614     0.015570961833131     0.001470166655288
    -0.003401411792875     0.002000410854741     0.007617900445378
1 36
    -8.787083870285514    -0.700694213041373    -0.434512014109261
    -0.883826831455491    -7.756065829422502    -0.218812504725247
    -0.707046328759164    -0.319817881619333    -5.311438984679893
1 37
     0.266005183124857    -0.068899016906138    -0.109581082474847
    -0.025207333794722     0.615845317003488    -0.149842037027837
    -0.125819493111623    -2.458083229098828    -2.840983783632214
1 38
     0.004995032151884     0.001004235861473    -0.024538311450501
    -0.016388568163245    -0.019868793878882    -0.016866667032152
     0.043094634601469     0.008731435851794     0.001580067367704
1 39
    -0.026842186108960     0.004869751292611     0.013505276746142
     0.023012413557739    -0.036441032357003     0.024599842055046
    -0.043400655294164    -0.018830478897900     0.001130498503041
1 40
     0.024658736763290    -0.094766594709492     0.015644758044381
    -0.057939916091211     0.168182725618947     0.010321964850644
     0.015771263225672     0.057774180527412     0.020809231273619
1 41
    -0.008815716783135     0.002501202818666    -0.032058685049330
     0.017586113776311     0.014280386533199    -0.014328853861410
     0.033849542775443     0.037336393916221    -0.001871830914592
1 42
     0.010050426236340     0.024518166678416     0.035572138086819
     0.038407607762521     0.074743734096749     0.047307694130129
    -0.035754262154906     0.011609432274622    -0.018553954870457
1 43
     0.712195016172651    -0.252420008696339    -0.159830498216693
    -0.217998357376441     0.450534860493136     0.046977668692562
    -2.042945827273051     1.152120489135072    -2.314796448575220
1 44
    -0.004214871921454     0.001288307152924    -0.008600413096105
    -0.006306176892322     0.006504510049650    -0.001789337791144
     0.027967581258038     0.018115286218118     0.004631603181993
1 45
     0.083797801671330    -0.007388346668241     0.028987663591870
     0.022443117685288     0.016159498695866    -0.006670918279778
    -0.011073181141320    -0.011484919717353    -0.008702902560148
1 46
    -0.032421181965485     0.017627230930264    -0.061947997170929
    -0.011958495078465    -0.036168933712569    -0.033472202682034
     0.042705747460591     0.033133328711995    -0.018566037997675
1 47
     0.001936043010329     0.008744433867431     0.001039675518277
    -0.000034220152671    -0.003016106043580     0.005059594288070
    -0.017497934791289    -0.022607193090357     0.000897795708008
1 48
     0.021809999905453    -0.024346771134134     0.042185494484054
    -0.033740480811650    -0.080577357792947     0.018716974443677
    -0.051585212387228    -0.014922964075412     0.026983605949166
1 49
     0.043241202356046     0.011634199865100    -0.020930609300549
     0.024884294740001     0.084288975000439    -0.012983304790644
     0.031952749047021     0.010433323428686     0.035928555407229
1 50
     0.034169086278612     0.011229095878752     0.002535025310876
     0.009937525514871     0.013775466561684     0.002108848417827
    -0.048476895610505    -0.027209507491345     0.013168920946820
1 51
    -0.088478823700211     0.010626992602282     0.056097031832924
    -0.057113038843755     0.001047621120001     0.061776825142190
     0.052810256406838    -0.014272781596341    -0.049443975681862
1 52
     0.065973808753223     0.039527160812014    -0.042348169313407
    -0.006991943751032     0.007798367567494    -0.012946047122395
    -0.007265608002627     0.031065978665719     0.021639234967475
1 53
     0.003664507488575     0.000654226460113     0.004047610209024
     0.008031578602334    -0.000813629297088    -0.000214982670020
    -0.027143731724810    -0.002623797917567     0.000453905166753
1 54
     0.432863483646095     0.257290107290182     0.119873705779072
     0.175657626746491     0.378580577923602     0.003217544604648
     2.479743680470119     0.972888502498309    -2.609364677857850
1 55
    -6.080827287190706    -1.227238727738343     1.106007646686479
    -1.292972933499492    -7.536124008205443     1.853048276109306
    -0.749032264395390    -1.670791929700410   -18.305058238752849
1 56
    -0.010504042081618     0.011814979199646     0.039489029607514
    -0.017922062444152     0.002064020307904     0.017343377051652
     0.007548731735068     0.000484795017820    -0.031975557572578
1 57
     0.004186117407265    -0.020678895805226    -0.044237891015424
     0.014640928664464    -0.034850698826854     0.013673118739916
    -0.003330163732799     0.006307462422519    -0.033814817399588
1 58
     0.112585760699970    -0.133734488244641     0.081838959093234
    -0.143198660576246    -0.019260107891798    -0.259124428963173
     0.240478111637183    -0.521106362986662    -0.448343647888455
1 59
     0.078271595505754     0.048154058493574     0.046973634955799
     0.045578949225238     0.015466539395904     0.013908711074080
    -0.024345391607080    -0.014464636051436    -0.074578272266097
1 60
    -0.014720282130972     0.010848913087563    -0.008196086142206
    -0.029314969320657    -0.001934358819851    -0.037572648591516
     0.006611894870135    -0.014246516493298    -0.031595588270775
1 61
    -0.071909239389003    -0.035432957538550    -0.136018272285154
    -0.055382572245163     0.170993269372180     0.107682671454493
    -0.287304028366560     0.472531158416139    -0.428610822461273
1 62
    -0.006020953149704     0.008600475508182     0.037937088369328
     0.012877251314318     0.004945588361045     0.029895281079314
     0.011481443968820     0.008189874452840    -0.039895082836704
1 63
     0.028889364468277    -0.007315718221252    -0.036419745600575
     0.015619191292341     0.003935616185087    -0.030209606523684
     0.037192290029930    -0.002469502787382    -0.067660573139736
1 64
     0.300835711220717     0.132262015752542    -0.353838667873359
     0.035851386116192    -0.148269058390308     0.019681785826462
    -0.912766574069197    -0.054983380811118    -0.432700739001107
1 65
    -0.006002742581073    -0.000296392547339    -0.001435267018901
    -0.001860479648727     0.000841892312640    -0.000347762030546
     0.004249576636274     0.000803178855440    -0.000335912966976
1 66
     0.185293912658501    -0.075383533518015     0.206262661887779
    -0.112247637635497    -0.001897013212378     0.004695901669049
     0.431778694945839     0.053445513397770    -0.340474984812830
1 67
     0.005175266228197     0.120826690147715    -0.049028163854770
     0.042670233065867     0.104323016158038    -0.154776819828446
    -0.189114537355618    -0.386623089743644    -0.488902224910044
1 68
    -0.009886017325217    -0.003462886157562    -0.002892591901633
    -0.007162940391602     0.001059821667262    -0.005346885459066
    -0.000379940150553     0.003476863262247    -0.003908064105641
1 69
     0.023851641454941    -0.012770713096423    -0.014857718506444
     0.006891298415165     0.086398513059350    -0.026596677763425
    -0.014692695825325     0.054635544445819    -0.116427156941148
1 70
     0.073380931496886    -0.028495944732156     0.033346776791807
    -0.056518075806789     0.059774949735312     0.011533050368740
    -0.035842024927119     0.030110819520809    -0.107497349702584
1 71
    -0.002286205198811    -0.002454570258330    -0.005906164643407
    -0.000263602579502    -0.005091616572636    -0.001395526967936
     0.000778790949439    -0.004371147656252    -0.004465498757215
1 72
    -0.040489944967626     0.060745084412449     0.118234441979765
     0.186388164833790     0.169241226716849     0.146138133242114
     0.548583356454524     0.796803601149238    -0.437650526617159
1 73
     0.233516839264425     0.176207697882705     0.158034927325553
     0.114541238875738     0.346672741523145    -0.082552511799140
    -0.001510812938052    -0.246185700356655    -0.094770446311451
1 74
    -0.028243991923374    -0.014541942913557     0.015948763709940
     0.025755602953025     0.020307600948909     0.021494162968066
    -0.049000028533777    -0.017293587223136    -0.021944969364556
1 75
    -0.011339671919381     0.002633779280133    -0.015407835835220
    -0.014493722344174     0.014566331307927     0.001100830374453
     0.033117060177939     0.002725667431764    -0.008467874869923
1 76
     0.034605106972144     0.026812628427597    -0.068487782679044
     0.023615571188176    -0.019414657869393     0.035519409616494
    -0.030040733836113    -0.001525180936660    -0.075296858579853
1 77
    -0.011848618001280    -0.039771582888555     0.027914606495074
    -0.036434750652433    -0.023489433341938     0.013400941950416
    -0.060968881412262    -0.067816488777026    -0.038635166160153
1 78
    -0.022981458838711    -0.037220157951865     0.011185356750244
    -0.002085164346283    -0.019404980050400    -0.000365026623541
     0.021206460106023     0.047632896540144    -0.022042432269030
1 79
     0.149338770813591     0.045827395273321     0.059182221398594
     0.014344417949420    -0.056494547083354     0.003214203530594
    -0.093433297940823     0.047954096321412    -0.160380670064580
1 80
    -0.009662785286235    -0.001590081364264     0.010516576278867
    -0.004547109862132    -0.024849281350077     0.005346101737538
    -0.047455465948458    -0.030273083899954    -0.022995009322364
1 81
     0.014770941917673    -0.002332598301894    -0.020829500114321
     0.004903302306546    -0.013710777377970    -0.011049256512728
     0.025436771650571     0.001315157457145    -0.014680466284364
1 82
     0.008386232273689    -0.084445776142980     0.027505875349936
    -0.215001965020429     0.038449274072555    -0.050698366613116
    -0.080473674862039    -0.096770601139187    -0.133853302217563
1 83
     0.001069571683063     0.001767197308300     0.003722062835805
     0.000252912687955     0.003230185311601    -0.003255231249585
    -0.000730982415423     0.001709489447152    -0.000420884658455
1 84
     0.007963154576226     0.001453985347974    -0.003904840311207
     0.021487500038318     0.034392814177269    -0.037341138882685
     0.022788357421671     0.023568178987685    -0.080405595429494
1 85
    -0.053581911592742     0.006723101126201     0.015526152899129
    -0.012371716415562    -0.105466105870354     0.002079293541616
    -0.035513106933702     0.015978050400004    -0.017283643355440
1 86
    -0.010977777093938    -0.004860721856777    -0.001141034006770
    -0.003293205223031    -0.005270124478659     0.002673438973569
     0.005810470253111     0.002830260162764    -0.001675762931827
1 87
     0.054137416672090    -0.021987740879366    -0.063735007146503
    -0.059948710714081    -0.023108052848119    -0.058229841937726
     0.027168400023619     0.038475053638370    -0.061323899597936
1 88
    -0.159955187744160    -0.045862099159766     0.004029448166608
     0.108653365909127    -0.024912707453807     0.079345160614603
     0.118292744085284    -0.006230404323381     0.031019935193292
1 89
     0.002228586684185    -0.000737254758235     0.000599387703934
    -0.000061737988782     0.000719473078859     0.002578094895612
     0.001489113753870    -0.000942749992017     0.000064554240538
1 90
     0.057688272190143    -0.042864068924491    -0.133593437239748
     0.103094337941067     0.010017730656714    -0.097616406894266
    -0.036036240619880     0.159583025418773    -0.324718785949588
1 91
    -0.072592917490763    -0.085830613723950     0.026519442344941
    -0.000761551694625     0.035000146206875     0.013782613662209
     0.061646550976726     0.056485049396701    -0.022207831128901
1 92
     0.006753106277563    -0.006972629834003     0.002967885275796
     0.001158838941007     0.000707955467655     0.003389803637274
     0.006963331345147     0.013082375038543     0.009389537105478
1 93
    -0.057759340250842     0.034422933857538    -0.136311595963567
     0.080487478998273     0.145023933920775     0.186344205765013
    -0.428264813002918     0.408346652332797    -0.018856778182011
1 94
    -0.015168977558030    -0.004512838532636    -0.024560183564648
    -0.049365379406195    -0.064220834396191     0.001970375192878
     0.012989374441541     0.030075571836613    -0.015582066959119
1 95
    -0.001235753947697    -0.001775425346340    -0.006738836959529
     0.007519642908782     0.002637405779404     0.003569561735486
     0.028543991043598     0.027451513447737     0.026447447670266
1 96
     0.056996749416778     0.038926744327045     0.005418715132433
    -0.029958122824648    -0.106973614992546     0.000098945495394
    -0.008072751535615    -0.039186862224731    -0.005335465320536
1 97
    -0.019193707180923    -0.000175785978386    -0.008526097291536
     0.004858324642693    -0.008658487941064    -0.015689841389345
    -0.028571279402344    -0.040956923480565     0.033403679512734
1 98
     0.005972171564851     0.006701032940181     0.009332122651053
     0.000481976178863    -0.003806165630048    -0.000926541295590
     0.035478858722175     0.000346005117515     0.020526921246522
1 99
     0.057174746169152     0.281503266231070    -1.493143699917864
     0.226139469102233     0.100600020152961    -3.550946007881697
    -0.650057159057681    -1.078169289193338    -2.522245873982956
1 100
     0.183404826850747    -0.052949102967517     0.684165346819182
     0.156944435276534     0.123646740445282     0.027658573119258
     1.785889645859600     0.265984048285683    -0.339214160553879
1 101
     0.006626319403033     0.002695881884229    -0.011050339065106
     0.002044089701507     0.001864398703715    -0.004583259404820
    -0.003640340579604    -0.003042861745850     0.002832480664167
1 102
    -0.107850677282559     0.005326140522727     0.006536342967353
    -0.015200719912168    -0.006122109718549     0.013102914025178
    -0.047899482273692     0.027282568925163    -0.052667359297494
1 103
     0.042998548511303     0.010070886154817     0.009296721699128
     0.048792226707149    -0.075515844935238     0.117121210945704
     0.047885946210757     0.302594614572035     0.092263811890233
1 104
     0.007603485621740     0.005112396970024    -0.010163210033189
     0.010327998926730     0.004381903427948    -0.003763904593349
    -0.011356805205525    -0.004406117583247     0.006569362072807
1 105
     0.008473988630628    -0.027781940629819    -0.009311115073793
     0.025877511247405    -0.008982070369735    -0.009614079892338
     0.039259077560743     0.008057119807746     0.038946585775534
1 106
    -0.066976451400014     0.032275163336373     0.014033514768131
     0.063100116381348    -0.046981642766294     0.011228962740996
     0.073903563420658    -0.061928328480113     0.003250218478534
1 107
     0.004879659345520     0.006800442998028    -0.009295714986191
     0.001215603540993     0.003977651186595    -0.008062217754559
    -0.005460574778780    -0.005182287512033     0.004141359897569
1 108
    -0.074980053659038     0.008240033777843     0.005956294037650
    -0.079156545415500     0.041438174555818     0.015764279475356
     0.023273619366704     0.065292722464031     0.009850245873941
2 1
    -0.039341357441849    -0.002438531501446     0.016205188575221
     0.006776230156973     0.055292598248744     0.011130246899904
    -0.006260091398474    -0.006092446221027     0.054411659006094
2 2
    33.942404638599598     1.309332341664635    -0.310241120183530
     1.309407942622243    35.766050590716461     1.720190898023335
    -0.311896054315808     1.721061030464504    41.943249859137040
2 3
    -0.039329969723955     0.006801979347922    -0.006259541732764
    -0.002456519032161     0.055296548692508    -0.006099525260880
     0.016203652452635     0.011128864211733     0.054412529150528
2 4
     0.020391287472830    -0.032726155212495     0.019324171825620
    -0.053313907152816    -0.030945788619033     0.017436937828742
    -0.022933650346520    -0.023424782228742     0.061475022870042
2 5
     0.133821753683550     2.394760053594502     0.694765738149438
     1.007273013959367    -1.856443409979009    -0.080951405187421
     0.221175706940113     0.653796566750153     1.259420816528789
2 6
    -0.062320399270479    -0.006521826452726    -0.074232651647276
     0.008212431209366    -0.061449265290576    -0.036183897995000
     0.079129828250514     0.043085274393026     0.059236340735456
2 7
    -0.062365741037274     0.008165209631996     0.079113395085206
    -0.006548688742826    -0.061467445994649     0.043075506729790
    -0.074215772239656    -0.036173405761683     0.059232852511466
2 8
     0.133656451163222     1.006748170563043     0.221156284450296
     2.395384042527196    -1.856367528201567     0.653709578959366
     0.694724540188463    -0.081027161115010     1.259397482905111
2 9
     0.020405001334749    -0.053326493515949    -0.022937051041979
    -0.032732380954610    -0.030963334460984    -0.023420477321313
     0.019328310014816     0.017433079977274     0.061477257790160
2 10
    -2.770049193321189    -0.669123282517660     0.382617621684314
     0.720506053493132     1.005544505299753    -0.601295049991354
    -0.414992894079510    -0.622993725584210     1.242264182171024
2 11
    -2.991598155870177     0.614421883393815    -0.365804544983722
    -0.722320368961778     1.084476783883235    -0.604860555392849
     0.495402406248808    -0.631526288256907     1.145512718925609
2 12
     0.017554421931695     0.006780150624319     0.000916510852400
     0.010217226650611     0.007738281552135    -0.001329897581134
    -0.000692780499033     0.001458087657147     0.005894503084547
2 13
    -0.087361276642469    -0.048871852278230     0.057949906766011
    -0.017972215956336    -0.126818608567631     0.025888719913524
    -0.041496873660089    -0.105034290679423     0.091690887709506
2 14
     0.084393908384009    -2.316724962288815    -0.746946389349620
    -0.926495301332981    -1.848241599245805    -0.047857730352047
    -0.329364171749929     0.632185381635758     1.242199444752317
2 15
     0.025823921270484     0.009720933627161     0.004361142511697
     0.026961707082235     0.004644832167597     0.007769922335110
     0.008913095668473    -0.000104727348926     0.006418828807926
2 16
     0.019149528801078    -1.123365294995236    -0.299033954175693
    -2.459615622406384    -1.925122041797978     0.744873848940347
    -0.706749785127353    -0.014342421039488     1.145407150853217
2 17
    -0.146045506999350    -0.014973326270612    -0.111689374619739
     0.015925327757461    -0.068286039747932     0.016563403291051
     0.051341316741532     0.037248586795135     0.091703633072776
2 18
     0.018824490587082     0.023927988043222     0.006934005954250
     0.003013849319559     0.003273360141600     0.000666875644251
     0.004046830785990     0.005673057437647     0.007404459749113
2 19
     0.101058619751100     0.079704605490888    -0.013088611213238
     0.068617208912451     0.002649252323132    -0.001190221490057
    -0.010559247416368    -0.030953061336236     0.055138731907565
2 20
    -7.375687890726669     0.001567931516562     0.156927610478765
     0.071648801769462    -9.202576901080958     0.679622384198415
     0.090913452434085     0.630145287512431    -5.393816282011689
2 21
     0.072672725626890    -0.020406217420266     0.012797364994413
    -0.020135637328314     0.005490285750741    -0.001844402059581
     0.008414649427274    -0.000505184423033     0.028591235100003
2 22
     0.022939719143997     0.137286704990049    -0.023235621027535
     0.133098590549614    -0.418978562356143    -0.201256517557716
     0.015714855294280    -0.167819751948552    -0.151275553795045
2 23
    -0.349298674699009     0.002618022169141    -0.171660312725831
    -0.044496819875993    -0.334099391832478    -0.061108491661950
    -0.127311056482838    -0.090627637348843    -0.349343030479418
2 24
     0.005052490546899     0.015451276182563     0.008533842330638
     0.022270611735288     0.069358927448855     0.008586420084045
     0.005828469818131     0.008083613772020     0.032132075164378
2 25
    -0.169270879496049     0.258789869779068    -0.152656938641252
     0.226902288800669    -0.201188788151885     0.102209436326623
    -0.168058520518069     0.104024099566578    -0.152487720328847
2 26
    -8.072354521700348     0.591196040829157     0.900656642268052
     0.493919076393849    -7.659078589443393    -0.536502729573558
     0.715782162489526    -0.358760262540529    -5.133846036155767
2 27
    -0.048599567030526    -0.006454703809045     0.012595213066891
    -0.009873133554079    -0.041957401078777     0.004212733898853
     0.010602939531947     0.009141609985175     0.008117846002065
2 28
     0.264870823364227    -0.143494069209210     0.037330371607148
    -0.048047573844307     0.187511240576019    -0.024986067040741
     0.056203423004941     0.011511462796554    -0.088131723528623
2 29
     0.320151633755248     0.032020844594593    -0.088937329685423
     0.047837571594278     0.143437583288952    -0.068421706917775
     0.014370902363206    -0.024741740601686    -0.130797257539926
2 30
     0.004716176316886    -0.024901625541830     0.002507284211939
    -0.023462035754114    -0.028226200035496    -0.005813089019763
    -0.000166342099268    -0.005801703267369     0.007634615087362
2 31
     0.160533967210685    -0.008569166315409    -0.027227729330298
    -0.009244192747127     0.413678143463144     0.006660204074534
    -0.001219121879070     0.029658903512791    -0.007991133909080
2 32
    -0.405017258283693    -0.070039781778533     0.130425171135788
    -0.075571444958612     0.115065755453269     0.093894058495926
     0.146985312986132     0.142696511718281    -0.164971166429945
2 33
    -0.047132351573415    -0.021962159665310    -0.002785592620452
    -0.027184319804340    -0.017044253488465     0.000646777151535
    -0.005094931532969    -0.002292573398066     0.011408804367744
2 34
    -8.787083870285514    -0.700694213041373    -0.434512014109261
    -0.883826831455491    -7.756065829422502    -0.218812504725247
    -0.707046328759164    -0.319817881619333    -5.311438984679893
2 35
    -0.205093740470501    -0.243457466402581     0.153608121148153
    -0.259062451897253    -0.226485493427808     0.084034142549717
     0.134892349561531     0.093941841461749    -0.152097533786587
2 36
    -0.045121552244973     0.001787014543053    -0.006580628490604
     0.001516694433614     0.015570961833131     0.001470166655288
    -0.003401411792875     0.002000410854741     0.007617900445378
2 37
    -0.026842186108960     0.004869751292611     0.013505276746142
     0.023012413557739    -0.036441032357003     0.024599842055046
    -0.043400655294164    -0.018830478897900     0.001130498503041
2 38
     0.266005183124857    -0.068899016906138    -0.109581082474847