
73 atoms
3 atom types
   0.0000000000   10.9975158802 xlo xhi
   0.0000000000    7.0251256984 ylo yhi
   0.0000000000   19.3007867005 zlo zhi
  -4.3350224717   -0.4352390444   -0.4291655872 xy xz yz

Atoms # atomic

     1      1    0.3771990844   -0.0894835090    8.6440860794
     2      1    3.1532979296   -0.0842232218    8.6304022433
     3      1    0.3162940033    1.4736540153    9.1744287525
     4      1    3.0817558023    1.4724535599    9.1644100196
     5      1   -1.1008769185    2.2612271147    8.6333191759
     6      1    1.6417258285    2.2464536198    8.6640722841
     7      1   -1.1357374353    3.8207383484    9.1475198164
     8      1    1.6156683511    3.7964946430    9.1915614404
     9      1   -2.5171113408    4.5915806096    8.5992903220
    10      1    0.2425590239    4.5846217855    8.6555464687
    11      1   -2.5396524698    6.1564959107    9.1089478314
    12      1    0.2136180736    6.1478972609    9.1646415802
    13      1    5.8694265821   -0.1015194723    8.6234831617
    14      1    8.6279586233   -0.1211141736    8.5952927600
    15      1    5.8474441263    1.4412742242    9.1394470909
    16      1    8.5815622062    1.4378482664    9.1237076448
    17      1    4.3990335778    2.2608141246    8.6481741535
    18      1    7.1735982969    2.2148130811    8.6094287695
    19      1    4.3965732830    3.8012338168    9.1528826527
    20      1    7.1376887891    3.7890909665    9.1113875858
    21      1    2.9724341161    4.5737093198    8.6491899348
    22      1    5.7389693319    4.5767370351    8.5933483776
    23      1    2.9491259456    6.1175422106    9.1389609297
    24      1    5.6954499640    6.1267335392    9.1272606744
    25      2    0.3813590376    1.5399684991   10.5973116526
    26      2    3.0822572193    1.3915222996   10.5800269833
    27      2    0.3960258482   -0.1215719817    7.2457881766
    28      2    3.1678729491   -0.0680926773    7.2062786978
    29      2   -1.1740247650    3.9192241287   10.5807322294
    30      2    1.6067624322    3.8391805489   10.6182863394
    31      2   -1.1377639009    2.2901725388    7.2134665629
    32      2    1.6235459122    2.1935169916    7.2420766177
    33      2   -2.4772247927    6.1282746035   10.5942800046
    34      2    0.2093639203    6.1975163342   10.5859903920
    35      2   -2.4869796845    4.5367941770    7.1935557771
    36      2    0.2788569281    4.5436809488    7.2337250799
    37      2    5.9379250802    1.4566411467   10.5600037643
    38      2    8.6497760478    1.4403216730   10.5626628851
    39      2    5.7682296713   -0.1165397157    7.2103896826
    40      2    8.5959068535   -0.0698420560    7.2020634227
    41      2    4.4206305599    3.7973380817   10.5779657928
    42      2    7.2039621575    3.8065408781   10.5243656920
    43      2    4.3510330903    2.3371452245    7.2254523183
    44      2    7.1097855695    2.1604151390    7.1851019403
    45      2    2.9634845664    6.1563883236   10.5650071450
    46      2    5.6789949918    6.0562217137   10.5619605162
    47      2    2.9143188043    4.5808720541    7.2373337200
    48      2    5.6997939388    4.6415234987    7.1908862638
    49      3   -0.5215607744    1.4209920059   10.9677015428
    50      3    2.2587344097   -0.0126268625   10.9185125318
    51      3   -0.2416998518    6.7220847644    6.9123229364
    52      3   -1.9234909928    3.3365833715   10.8799247117
    53      3    1.0534167232    3.0580888792   10.9236738650
    54      3   -1.3936361928    3.2116484055    6.9276277058
    55      3    0.8361905383    0.7076264318    6.9241495533
    56      3   -1.8692735127    5.3159012883   10.8364096896
    57      3    0.6929971224    5.3944120532   10.9164081678
    58      3   -2.3477951432    5.4352657529    6.8161556852
    59      3    1.1973851044    4.8353040754    6.9592450062
    60      3    5.4099118737    0.6871741416   10.9115199837
    61      3    7.7339372482    1.2354351954   10.8975073341
    62      3    6.3402177007    0.6230824921    6.8658973731
    63      3    4.7110435463    6.1555979660    6.8379545558
    64      3    4.9181234584    4.6350445088   10.8480148840
    65      3    6.4989765848    3.2113172982   10.8760686384
    66      3    3.8045124774    1.5782281140    6.8985291492
    67      3    8.0267191500    2.0003475854    6.8442753892
    68      3    2.8982140339    5.2398346601   10.9163656783
    69      3    9.3127201584   -0.3596981591   10.8897971577
    70      3    3.3608514483    3.7454463950    6.9287249136
    71      3    6.0396125358    3.8014630450    6.8079628909
    72      3    3.3801763184    2.2558033151   10.9632574083
    73      3    0.9393961424    2.8482974996    6.9429422829
